============================== echo of input deck ==============================
echo
start molecule

title "DFT B3LYP calculation on CH2 with 3-21g basis"

geometry units au
  C    0   0     0
  H    0  1.87  -0.82
  symmetry c2v
end

basis
  C library 3-21g
  H library 3-21g
end

dft
  xc b3lyp
end

task dft
================================================================================

 Output coordinates in a.u. (scale by  1.000000000 to convert to a.u.)

  No.       Tag          Charge          X              Y              Z
 ---- ---------------- ---------- -------------- -------------- --------------
    1 C                    6.0000     0.00000000     0.00000000     0.20500000
    2 H                    1.0000     0.00000000     1.87000000    -0.61500000
    3 H                    1.0000     0.00000000    -1.87000000    -0.61500000

         Total DFT energy =      -38.887635224491

                       DFT Final Molecular Orbital Analysis
                       ------------------------------------

 Vector    1  Occ=2.000000D+00  E=-1.016259D+01  Symmetry=a1

 Vector    2  Occ=2.000000D+00  E=-6.588116D-01  Symmetry=a1

 Vector    3  Occ=2.000000D+00  E=-4.543874D-01  Symmetry=b2

 Vector    4  Occ=2.000000D+00  E=-1.849217D-01  Symmetry=a1

 Vector    5  Occ=0.000000D+00  E=-1.117399D-01  Symmetry=b1

 Vector    6  Occ=0.000000D+00  E= 1.188821D-01  Symmetry=a1

 Vector    7  Occ=0.000000D+00  E= 2.121829D-01  Symmetry=b2

 Vector    8  Occ=0.000000D+00  E= 7.158352D-01  Symmetry=a1

 Vector    9  Occ=0.000000D+00  E= 7.266797D-01  Symmetry=b1

 Vector   10  Occ=0.000000D+00  E= 7.882976D-01  Symmetry=b2

 Vector   11  Occ=0.000000D+00  E= 8.374055D-01  Symmetry=a1

 Vector   12  Occ=0.000000D+00  E= 1.055889D+00  Symmetry=b2

 Vector   13  Occ=0.000000D+00  E= 1.359769D+00  Symmetry=a1

     Multipole analysis of the density
     ---------------------------------

     L   x y z        total         alpha         beta         nuclear
     -   - - -        -----         -----         ----         -------
     0   0 0 0     -0.000000     -4.000000     -4.000000      8.000000

     1   1 0 0     -0.000000     -0.000000     -0.000000      0.000000
     1   0 1 0      0.000000      0.000000      0.000000      0.000000
     1   0 0 1     -0.793740     -0.396870     -0.396870      0.000000

     2   2 0 0     -4.490942     -2.245471     -2.245471      0.000000
     2   1 1 0     -0.000000     -0.000000     -0.000000      0.000000
     2   1 0 1      0.000000      0.000000      0.000000      0.000000
     2   0 2 0     -4.361080     -5.677440     -5.677440      6.993800
     2   0 1 1     -0.000000     -0.000000     -0.000000      0.000000

 Total times  cpu:        0.3s     wall:        0.5s
