============================== echo of input deck ==============================
echo
start molecule

title "DFT and MP2 calculation on water with different basis sets"

geometry units angstrom
O      0.00000000     0.00000000     0.11726921
H      0.75698224     0.00000000    -0.46907685
H     -0.75698224     0.00000000    -0.46907685
end

basis
  O library sto-3g
  H library sto-3g
end

task dft

basis
  O library 3-21g
  H library 3-21g
end

task mp2
================================================================================

 Output coordinates in angstroms (scale by  1.889725989 to convert to a.u.)

  No.       Tag          Charge          X              Y              Z
 ---- ---------------- ---------- -------------- -------------- --------------
    1 O                    8.0000     0.00000000     0.00000000     0.11726921
    2 H                    1.0000     0.75698224     0.00000000    -0.46907685
    3 H                    1.0000    -0.75698224     0.00000000    -0.46907685

         Total DFT energy =      -74.731965537367

                       DFT Final Molecular Orbital Analysis
                       ------------------------------------

 Vector    1  Occ=2.000000D+00  E=-1.827085D+01  Symmetry=a1

 Vector    2  Occ=2.000000D+00  E=-8.310090D-01  Symmetry=a1

 Vector    3  Occ=2.000000D+00  E=-3.830670D-01  Symmetry=b1

 Vector    4  Occ=2.000000D+00  E=-1.494519D-01  Symmetry=a1

 Vector    5  Occ=2.000000D+00  E=-5.740914D-02  Symmetry=b2

 Vector    6  Occ=0.000000D+00  E= 3.167739D-01  Symmetry=a1

 Vector    7  Occ=0.000000D+00  E= 4.259515D-01  Symmetry=b1

         Total SCF energy =    -75.585396620709

 Vector    2  Occ=2.000000D+00  E=-1.329372D+00  Symmetry=a1

 Vector    3  Occ=2.000000D+00  E=-6.854655D-01  Symmetry=b1

 Vector    4  Occ=2.000000D+00  E=-5.376488D-01  Symmetry=a1

 Vector    5  Occ=2.000000D+00  E=-4.796186D-01  Symmetry=b2

 Vector    6  Occ=0.000000D+00  E= 2.636723D-01  Symmetry=a1

 Vector    7  Occ=0.000000D+00  E= 3.620378D-01  Symmetry=b1

 Vector    8  Occ=0.000000D+00  E= 1.193172D+00  Symmetry=b1

 Vector    9  Occ=0.000000D+00  E= 1.308456D+00  Symmetry=a1

 Vector   10  Occ=0.000000D+00  E= 1.782310D+00  Symmetry=b2

 Vector   11  Occ=0.000000D+00  E= 1.866857D+00  Symmetry=a1

 Vector   12  Occ=0.000000D+00  E= 2.015845D+00  Symmetry=b1

 Vector   13  Occ=0.000000D+00  E= 3.113498D+00  Symmetry=a1

       Multipole analysis of the density wrt the origin
       ------------------------------------------------

     L   x y z        total         open         nuclear
     -   - - -        -----         ----         -------
     0   0 0 0     -0.000000      0.000000     10.000000

     1   1 0 0      0.000000      0.000000      0.000000
     1   0 1 0      0.000000      0.000000      0.000000
     1   0 0 1     -0.958244      0.000000      0.000000

     2   2 0 0     -3.071742      0.000000      4.092598
     2   1 1 0     -0.000000      0.000000      0.000000
     2   1 0 1     -0.000000      0.000000      0.000000
     2   0 2 0     -5.069775      0.000000      0.000000
     2   0 1 1      0.000000      0.000000      0.000000

          Total MP2 energy           -75.707826301257
 Total times  cpu:        0.3s     wall:        0.5s
